<?xml version="1.0" encoding="UTF-8"?>

<!-- generated on 11/25/18 13:05:33 by Eclipse SUMO GUI Version 1.0.1
<configuration xmlns:xsi="http://www.w3.org/2001/XMLSchema-instance" xsi:noNamespaceSchemaLocation="http://sumo.dlr.de/xsd/sumoConfiguration.xsd">

    <input>
        <net-file value="C:\Users\D\Documents\SULI\ETH\ETH_1\00Anyagok\S.I.P\assignment\ass2\Script3\newgrid\testNewGrid.net.xml"/>
        <route-files value="C:\Users\D\Documents\SULI\ETH\ETH_1\00Anyagok\S.I.P\assignment\ass2\Script3\newgrid\testNewGrid.rou.xml"/>
    </input>

    <output>
        <netstate-dump value="C:\Users\D\Documents\SULI\ETH\ETH_1\00Anyagok\S.I.P\assignment\ass2\Script3\newgrid\netstate-outputNewGrid.xml"/>
    </output>

    <time>
        <begin value="0"/>
        <end value="301"/>
    </time>

</configuration>
-->

<netstate xmlns:xsi="http://www.w3.org/2001/XMLSchema-instance" xsi:noNamespaceSchemaLocation="http://sumo.dlr.de/xsd/netstate_file.xsd">
    <timestep time="0.00">
        <edge id="e11-1">
            <lane id="e11-1_0">
                <vehicle id="agent_0" pos="2.10" speed="0.00"/>
            </lane>
            <lane id="e11-1_1"/>
        </edge>
    </timestep>
    <timestep time="1.00">
        <edge id="e11-1">
            <lane id="e11-1_0">
                <vehicle id="agent_0" pos="3.10" speed="1.00"/>
            </lane>
            <lane id="e11-1_1"/>
        </edge>
    </timestep>
    <timestep time="2.00">
        <edge id="e11-1">
            <lane id="e11-1_0">
                <vehicle id="agent_0" pos="5.10" speed="2.00"/>
            </lane>
            <lane id="e11-1_1"/>
        </edge>
    </timestep>
    <timestep time="3.00">
        <edge id="e11-1">
            <lane id="e11-1_0">
                <vehicle id="agent_0" pos="8.10" speed="3.00"/>
            </lane>
            <lane id="e11-1_1"/>
        </edge>
    </timestep>
    <timestep time="4.00">
        <edge id="e11-1">
            <lane id="e11-1_0">
                <vehicle id="agent_0" pos="12.10" speed="4.00"/>
            </lane>
            <lane id="e11-1_1"/>
        </edge>
    </timestep>
    <timestep time="5.00">
        <edge id="e11-1">
            <lane id="e11-1_0">
                <vehicle id="agent_0" pos="17.10" speed="5.00"/>
            </lane>
            <lane id="e11-1_1"/>
        </edge>
    </timestep>
    <timestep time="6.00">
        <edge id="e11-1">
            <lane id="e11-1_0">
                <vehicle id="agent_0" pos="23.10" speed="6.00"/>
            </lane>
            <lane id="e11-1_1"/>
        </edge>
    </timestep>
    <timestep time="7.00">
        <edge id="e11-1">
            <lane id="e11-1_0">
                <vehicle id="agent_0" pos="30.10" speed="7.00"/>
            </lane>
            <lane id="e11-1_1"/>
        </edge>
    </timestep>
    <timestep time="8.00">
        <edge id="e11-1">
            <lane id="e11-1_0">
                <vehicle id="agent_0" pos="38.10" speed="8.00"/>
            </lane>
            <lane id="e11-1_1"/>
        </edge>
    </timestep>
    <timestep time="9.00">
        <edge id="e11-1">
            <lane id="e11-1_0">
                <vehicle id="agent_0" pos="47.10" speed="9.00"/>
            </lane>
            <lane id="e11-1_1"/>
        </edge>
    </timestep>
    <timestep time="10.00">
        <edge id="e11-1">
            <lane id="e11-1_0">
                <vehicle id="agent_0" pos="57.10" speed="10.00"/>
            </lane>
            <lane id="e11-1_1"/>
        </edge>
    </timestep>
    <timestep time="11.00">
        <edge id="e11-1">
            <lane id="e11-1_0">
                <vehicle id="agent_0" pos="68.10" speed="11.00"/>
            </lane>
            <lane id="e11-1_1"/>
        </edge>
    </timestep>
    <timestep time="12.00">
        <edge id="e11-1">
            <lane id="e11-1_0">
                <vehicle id="agent_0" pos="80.10" speed="12.00"/>
            </lane>
            <lane id="e11-1_1"/>
        </edge>
    </timestep>
    <timestep time="13.00">
        <edge id="e11-1">
            <lane id="e11-1_0">
                <vehicle id="agent_0" pos="93.10" speed="13.00"/>
            </lane>
            <lane id="e11-1_1"/>
        </edge>
    </timestep>
    <timestep time="14.00">
        <edge id="e11-1">
            <lane id="e11-1_0">
                <vehicle id="agent_0" pos="107.10" speed="14.00"/>
            </lane>
            <lane id="e11-1_1"/>
        </edge>
    </timestep>
    <timestep time="15.00">
        <edge id="e11-1">
            <lane id="e11-1_0">
                <vehicle id="agent_0" pos="122.10" speed="15.00"/>
            </lane>
            <lane id="e11-1_1"/>
        </edge>
    </timestep>
    <timestep time="16.00">
        <edge id="e11-1">
            <lane id="e11-1_0">
                <vehicle id="agent_0" pos="138.10" speed="16.00"/>
            </lane>
            <lane id="e11-1_1"/>
        </edge>
    </timestep>
    <timestep time="17.00">
        <edge id="e11-1">
            <lane id="e11-1_0">
                <vehicle id="agent_0" pos="155.10" speed="17.00"/>
            </lane>
            <lane id="e11-1_1"/>
        </edge>
    </timestep>
    <timestep time="18.00">
        <edge id="e11-1">
            <lane id="e11-1_0">
                <vehicle id="agent_0" pos="173.10" speed="18.00"/>
            </lane>
            <lane id="e11-1_1"/>
        </edge>
    </timestep>
    <timestep time="19.00"/>
    <timestep time="20.00"/>
    <timestep time="21.00"/>
    <timestep time="22.00"/>
    <timestep time="23.00"/>
    <timestep time="24.00"/>
    <timestep time="25.00"/>
    <timestep time="26.00"/>
    <timestep time="27.00"/>
    <timestep time="28.00"/>
    <timestep time="29.00"/>
    <timestep time="30.00"/>
    <timestep time="31.00"/>
    <timestep time="32.00"/>
    <timestep time="33.00"/>
    <timestep time="34.00"/>
    <timestep time="35.00"/>
    <timestep time="36.00"/>
    <timestep time="37.00"/>
    <timestep time="38.00"/>
    <timestep time="39.00"/>
    <timestep time="40.00"/>
    <timestep time="41.00"/>
    <timestep time="42.00"/>
    <timestep time="43.00"/>
    <timestep time="44.00"/>
    <timestep time="45.00"/>
    <timestep time="46.00"/>
    <timestep time="47.00"/>
    <timestep time="48.00"/>
    <timestep time="49.00"/>
    <timestep time="50.00"/>
    <timestep time="51.00"/>
    <timestep time="52.00"/>
    <timestep time="53.00"/>
    <timestep time="54.00"/>
    <timestep time="55.00"/>
    <timestep time="56.00"/>
    <timestep time="57.00"/>
    <timestep time="58.00"/>
    <timestep time="59.00"/>
    <timestep time="60.00">
        <edge id="e64-74">
            <lane id="e64-74_0">
                <vehicle id="agent_1" pos="2.10" speed="0.00"/>
            </lane>
            <lane id="e64-74_1"/>
        </edge>
        <edge id="e68-78">
            <lane id="e68-78_0">
                <vehicle id="agent_3" pos="2.10" speed="0.00"/>
            </lane>
            <lane id="e68-78_1"/>
        </edge>
        <edge id="e85-75">
            <lane id="e85-75_0">
                <vehicle id="agent_2" pos="2.10" speed="0.00"/>
            </lane>
            <lane id="e85-75_1"/>
        </edge>
    </timestep>
    <timestep time="61.00">
        <edge id="e64-74">
            <lane id="e64-74_0">
                <vehicle id="agent_1" pos="3.10" speed="1.00"/>
            </lane>
            <lane id="e64-74_1"/>
        </edge>
        <edge id="e68-78">
            <lane id="e68-78_0">
                <vehicle id="agent_3" pos="3.10" speed="1.00"/>
            </lane>
            <lane id="e68-78_1"/>
        </edge>
        <edge id="e85-75">
            <lane id="e85-75_0">
                <vehicle id="agent_2" pos="3.10" speed="1.00"/>
            </lane>
            <lane id="e85-75_1"/>
        </edge>
    </timestep>
    <timestep time="62.00">
        <edge id="e64-74">
            <lane id="e64-74_0">
                <vehicle id="agent_1" pos="5.10" speed="2.00"/>
            </lane>
            <lane id="e64-74_1"/>
        </edge>
        <edge id="e68-78">
            <lane id="e68-78_0">
                <vehicle id="agent_3" pos="5.10" speed="2.00"/>
            </lane>
            <lane id="e68-78_1"/>
        </edge>
        <edge id="e85-75">
            <lane id="e85-75_0">
                <vehicle id="agent_2" pos="5.10" speed="2.00"/>
            </lane>
            <lane id="e85-75_1"/>
        </edge>
    </timestep>
    <timestep time="63.00">
        <edge id="e64-74">
            <lane id="e64-74_0">
                <vehicle id="agent_1" pos="8.10" speed="3.00"/>
            </lane>
            <lane id="e64-74_1"/>
        </edge>
        <edge id="e68-78">
            <lane id="e68-78_0">
                <vehicle id="agent_3" pos="8.10" speed="3.00"/>
            </lane>
            <lane id="e68-78_1"/>
        </edge>
        <edge id="e85-75">
            <lane id="e85-75_0">
                <vehicle id="agent_2" pos="8.10" speed="3.00"/>
            </lane>
            <lane id="e85-75_1"/>
        </edge>
    </timestep>
    <timestep time="64.00">
        <edge id="e64-74">
            <lane id="e64-74_0">
                <vehicle id="agent_1" pos="12.10" speed="4.00"/>
            </lane>
            <lane id="e64-74_1"/>
        </edge>
        <edge id="e68-78">
            <lane id="e68-78_0">
                <vehicle id="agent_3" pos="12.10" speed="4.00"/>
            </lane>
            <lane id="e68-78_1"/>
        </edge>
        <edge id="e85-75">
            <lane id="e85-75_0">
                <vehicle id="agent_2" pos="12.10" speed="4.00"/>
            </lane>
            <lane id="e85-75_1"/>
        </edge>
    </timestep>
    <timestep time="65.00">
        <edge id="e64-74">
            <lane id="e64-74_0">
                <vehicle id="agent_1" pos="17.10" speed="5.00"/>
            </lane>
            <lane id="e64-74_1"/>
        </edge>
        <edge id="e68-78">
            <lane id="e68-78_0">
                <vehicle id="agent_3" pos="17.10" speed="5.00"/>
            </lane>
            <lane id="e68-78_1"/>
        </edge>
        <edge id="e85-75">
            <lane id="e85-75_0">
                <vehicle id="agent_2" pos="17.10" speed="5.00"/>
            </lane>
            <lane id="e85-75_1"/>
        </edge>
    </timestep>
    <timestep time="66.00">
        <edge id="e64-74">
            <lane id="e64-74_0">
                <vehicle id="agent_1" pos="23.10" speed="6.00"/>
            </lane>
            <lane id="e64-74_1"/>
        </edge>
        <edge id="e68-78">
            <lane id="e68-78_0">
                <vehicle id="agent_3" pos="23.10" speed="6.00"/>
            </lane>
            <lane id="e68-78_1"/>
        </edge>
        <edge id="e85-75">
            <lane id="e85-75_0">
                <vehicle id="agent_2" pos="23.10" speed="6.00"/>
            </lane>
            <lane id="e85-75_1"/>
        </edge>
    </timestep>
    <timestep time="67.00">
        <edge id="e64-74">
            <lane id="e64-74_0">
                <vehicle id="agent_1" pos="30.10" speed="7.00"/>
            </lane>
            <lane id="e64-74_1"/>
        </edge>
        <edge id="e68-78">
            <lane id="e68-78_0">
                <vehicle id="agent_3" pos="30.10" speed="7.00"/>
            </lane>
            <lane id="e68-78_1"/>
        </edge>
        <edge id="e85-75">
            <lane id="e85-75_0">
                <vehicle id="agent_2" pos="30.10" speed="7.00"/>
            </lane>
            <lane id="e85-75_1"/>
        </edge>
    </timestep>
    <timestep time="68.00">
        <edge id="e64-74">
            <lane id="e64-74_0">
                <vehicle id="agent_1" pos="38.10" speed="8.00"/>
            </lane>
            <lane id="e64-74_1"/>
        </edge>
        <edge id="e68-78">
            <lane id="e68-78_0">
                <vehicle id="agent_3" pos="38.10" speed="8.00"/>
            </lane>
            <lane id="e68-78_1"/>
        </edge>
        <edge id="e85-75">
            <lane id="e85-75_0">
                <vehicle id="agent_2" pos="38.10" speed="8.00"/>
            </lane>
            <lane id="e85-75_1"/>
        </edge>
    </timestep>
    <timestep time="69.00">
        <edge id="e64-74">
            <lane id="e64-74_0">
                <vehicle id="agent_1" pos="47.10" speed="9.00"/>
            </lane>
            <lane id="e64-74_1"/>
        </edge>
        <edge id="e68-78">
            <lane id="e68-78_0">
                <vehicle id="agent_3" pos="47.10" speed="9.00"/>
            </lane>
            <lane id="e68-78_1"/>
        </edge>
        <edge id="e85-75">
            <lane id="e85-75_0">
                <vehicle id="agent_2" pos="47.10" speed="9.00"/>
            </lane>
            <lane id="e85-75_1"/>
        </edge>
    </timestep>
    <timestep time="70.00">
        <edge id="e64-74">
            <lane id="e64-74_0">
                <vehicle id="agent_1" pos="57.10" speed="10.00"/>
            </lane>
            <lane id="e64-74_1"/>
        </edge>
        <edge id="e68-78">
            <lane id="e68-78_0">
                <vehicle id="agent_3" pos="57.10" speed="10.00"/>
            </lane>
            <lane id="e68-78_1"/>
        </edge>
        <edge id="e85-75">
            <lane id="e85-75_0">
                <vehicle id="agent_2" pos="57.10" speed="10.00"/>
            </lane>
            <lane id="e85-75_1"/>
        </edge>
    </timestep>
    <timestep time="71.00">
        <edge id="e64-74">
            <lane id="e64-74_0">
                <vehicle id="agent_1" pos="68.10" speed="11.00"/>
            </lane>
            <lane id="e64-74_1"/>
        </edge>
        <edge id="e68-78">
            <lane id="e68-78_0">
                <vehicle id="agent_3" pos="68.10" speed="11.00"/>
            </lane>
            <lane id="e68-78_1"/>
        </edge>
        <edge id="e85-75">
            <lane id="e85-75_0">
                <vehicle id="agent_2" pos="68.10" speed="11.00"/>
            </lane>
            <lane id="e85-75_1"/>
        </edge>
    </timestep>
    <timestep time="72.00">
        <edge id="e64-74">
            <lane id="e64-74_0">
                <vehicle id="agent_1" pos="80.10" speed="12.00"/>
            </lane>
            <lane id="e64-74_1"/>
        </edge>
        <edge id="e68-78">
            <lane id="e68-78_0">
                <vehicle id="agent_3" pos="80.10" speed="12.00"/>
            </lane>
            <lane id="e68-78_1"/>
        </edge>
        <edge id="e85-75">
            <lane id="e85-75_0">
                <vehicle id="agent_2" pos="80.10" speed="12.00"/>
            </lane>
            <lane id="e85-75_1"/>
        </edge>
    </timestep>
    <timestep time="73.00">
        <edge id="e64-74">
            <lane id="e64-74_0">
                <vehicle id="agent_1" pos="93.10" speed="13.00"/>
            </lane>
            <lane id="e64-74_1"/>
        </edge>
        <edge id="e68-78">
            <lane id="e68-78_0">
                <vehicle id="agent_3" pos="93.10" speed="13.00"/>
            </lane>
            <lane id="e68-78_1"/>
        </edge>
        <edge id="e85-75">
            <lane id="e85-75_0">
                <vehicle id="agent_2" pos="93.10" speed="13.00"/>
            </lane>
            <lane id="e85-75_1"/>
        </edge>
    </timestep>
    <timestep time="74.00">
        <edge id="e64-74">
            <lane id="e64-74_0">
                <vehicle id="agent_1" pos="107.10" speed="14.00"/>
            </lane>
            <lane id="e64-74_1"/>
        </edge>
        <edge id="e68-78">
            <lane id="e68-78_0">
                <vehicle id="agent_3" pos="107.10" speed="14.00"/>
            </lane>
            <lane id="e68-78_1"/>
        </edge>
        <edge id="e85-75">
            <lane id="e85-75_0">
                <vehicle id="agent_2" pos="107.10" speed="14.00"/>
            </lane>
            <lane id="e85-75_1"/>
        </edge>
    </timestep>
    <timestep time="75.00">
        <edge id="e64-74">
            <lane id="e64-74_0">
                <vehicle id="agent_1" pos="122.10" speed="15.00"/>
            </lane>
            <lane id="e64-74_1"/>
        </edge>
        <edge id="e68-78">
            <lane id="e68-78_0">
                <vehicle id="agent_3" pos="122.10" speed="15.00"/>
            </lane>
            <lane id="e68-78_1"/>
        </edge>
        <edge id="e85-75">
            <lane id="e85-75_0">
                <vehicle id="agent_2" pos="122.10" speed="15.00"/>
            </lane>
            <lane id="e85-75_1"/>
        </edge>
    </timestep>
    <timestep time="76.00">
        <edge id="e64-74">
            <lane id="e64-74_0">
                <vehicle id="agent_1" pos="138.10" speed="16.00"/>
            </lane>
            <lane id="e64-74_1"/>
        </edge>
        <edge id="e68-78">
            <lane id="e68-78_0">
                <vehicle id="agent_3" pos="138.10" speed="16.00"/>
            </lane>
            <lane id="e68-78_1"/>
        </edge>
        <edge id="e85-75">
            <lane id="e85-75_0">
                <vehicle id="agent_2" pos="138.10" speed="16.00"/>
            </lane>
            <lane id="e85-75_1"/>
        </edge>
    </timestep>
    <timestep time="77.00">
        <edge id="e64-74">
            <lane id="e64-74_0">
                <vehicle id="agent_1" pos="155.10" speed="17.00"/>
            </lane>
            <lane id="e64-74_1"/>
        </edge>
        <edge id="e68-78">
            <lane id="e68-78_0">
                <vehicle id="agent_3" pos="155.10" speed="17.00"/>
            </lane>
            <lane id="e68-78_1"/>
        </edge>
        <edge id="e85-75">
            <lane id="e85-75_0">
                <vehicle id="agent_2" pos="155.10" speed="17.00"/>
            </lane>
            <lane id="e85-75_1"/>
        </edge>
    </timestep>
    <timestep time="78.00">
        <edge id="e64-74">
            <lane id="e64-74_0">
                <vehicle id="agent_1" pos="173.10" speed="18.00"/>
            </lane>
            <lane id="e64-74_1"/>
        </edge>
        <edge id="e68-78">
            <lane id="e68-78_0">
                <vehicle id="agent_3" pos="169.65" speed="14.55"/>
            </lane>
            <lane id="e68-78_1"/>
        </edge>
        <edge id="e85-75">
            <lane id="e85-75_0">
                <vehicle id="agent_2" pos="173.10" speed="18.00"/>
            </lane>
            <lane id="e85-75_1"/>
        </edge>
    </timestep>
    <timestep time="79.00">
        <edge id=":n74_16">
            <lane id=":n74_16_0">
                <vehicle id="agent_1" pos="12.90" speed="19.00"/>
            </lane>
            <lane id=":n74_16_1"/>
        </edge>
        <edge id=":n75_6">
            <lane id=":n75_6_0">
                <vehicle id="agent_2" pos="12.90" speed="19.00"/>
            </lane>
            <lane id=":n75_6_1"/>
        </edge>
        <edge id="e68-78">
            <lane id="e68-78_0">
                <vehicle id="agent_3" pos="179.20" speed="9.55"/>
            </lane>
            <lane id="e68-78_1"/>
        </edge>
    </timestep>
    <timestep time="80.00">
        <edge id=":n78_15">
            <lane id=":n78_15_0">
                <vehicle id="agent_3" pos="7.05" speed="7.05"/>
            </lane>
        </edge>
        <edge id="e74-84">
            <lane id="e74-84_0">
                <vehicle id="agent_1" pos="12.10" speed="20.00"/>
            </lane>
            <lane id="e74-84_1"/>
        </edge>
        <edge id="e75-65">
            <lane id="e75-65_0">
                <vehicle id="agent_2" pos="12.10" speed="20.00"/>
            </lane>
            <lane id="e75-65_1"/>
        </edge>
    </timestep>
    <timestep time="81.00">
        <edge id="e74-84">
            <lane id="e74-84_0">
                <vehicle id="agent_1" pos="33.10" speed="21.00"/>
            </lane>
            <lane id="e74-84_1"/>
        </edge>
        <edge id="e75-65">
            <lane id="e75-65_0">
                <vehicle id="agent_2" pos="33.10" speed="21.00"/>
            </lane>
            <lane id="e75-65_1"/>
        </edge>
        <edge id="e78-77">
            <lane id="e78-77_0">
                <vehicle id="agent_3" pos="5.07" speed="7.05"/>
            </lane>
            <lane id="e78-77_1"/>
        </edge>
    </timestep>
    <timestep time="82.00">
        <edge id="e74-84">
            <lane id="e74-84_0">
                <vehicle id="agent_1" pos="55.10" speed="22.00"/>
            </lane>
            <lane id="e74-84_1"/>
        </edge>
        <edge id="e75-65">
            <lane id="e75-65_0">
                <vehicle id="agent_2" pos="55.10" speed="22.00"/>
            </lane>
            <lane id="e75-65_1"/>
        </edge>
        <edge id="e78-77">
            <lane id="e78-77_0">
                <vehicle id="agent_3" pos="13.11" speed="8.05"/>
            </lane>
            <lane id="e78-77_1"/>
        </edge>
    </timestep>
    <timestep time="83.00">
        <edge id="e74-84">
            <lane id="e74-84_0">
                <vehicle id="agent_1" pos="78.10" speed="23.00"/>
            </lane>
            <lane id="e74-84_1"/>
        </edge>
        <edge id="e75-65">
            <lane id="e75-65_0">
                <vehicle id="agent_2" pos="78.10" speed="23.00"/>
            </lane>
            <lane id="e75-65_1"/>
        </edge>
        <edge id="e78-77">
            <lane id="e78-77_0">
                <vehicle id="agent_3" pos="22.16" speed="9.05"/>
            </lane>
            <lane id="e78-77_1"/>
        </edge>
    </timestep>
    <timestep time="84.00">
        <edge id="e74-84">
            <lane id="e74-84_0">
                <vehicle id="agent_1" pos="102.10" speed="24.00"/>
            </lane>
            <lane id="e74-84_1"/>
        </edge>
        <edge id="e75-65">
            <lane id="e75-65_0">
                <vehicle id="agent_2" pos="102.10" speed="24.00"/>
            </lane>
            <lane id="e75-65_1"/>
        </edge>
        <edge id="e78-77">
            <lane id="e78-77_0">
                <vehicle id="agent_3" pos="32.21" speed="10.05"/>
            </lane>
            <lane id="e78-77_1"/>
        </edge>
    </timestep>
    <timestep time="85.00">
        <edge id="e74-84">
            <lane id="e74-84_0">
                <vehicle id="agent_1" pos="127.10" speed="25.00"/>
            </lane>
            <lane id="e74-84_1"/>
        </edge>
        <edge id="e75-65">
            <lane id="e75-65_0">
                <vehicle id="agent_2" pos="127.10" speed="25.00"/>
            </lane>
            <lane id="e75-65_1"/>
        </edge>
        <edge id="e78-77">
            <lane id="e78-77_0">
                <vehicle id="agent_3" pos="43.26" speed="11.05"/>
            </lane>
            <lane id="e78-77_1"/>
        </edge>
    </timestep>
    <timestep time="86.00">
        <edge id="e74-84">
            <lane id="e74-84_0">
                <vehicle id="agent_1" pos="147.32" speed="20.22"/>
            </lane>
            <lane id="e74-84_1"/>
        </edge>
        <edge id="e75-65">
            <lane id="e75-65_0">
                <vehicle id="agent_2" pos="147.32" speed="20.22"/>
            </lane>
            <lane id="e75-65_1"/>
        </edge>
        <edge id="e78-77">
            <lane id="e78-77_0">
                <vehicle id="agent_3" pos="55.31" speed="12.05"/>
            </lane>
            <lane id="e78-77_1"/>
        </edge>
    </timestep>
    <timestep time="87.00">
        <edge id="e74-84">
            <lane id="e74-84_0">
                <vehicle id="agent_1" pos="162.54" speed="15.22"/>
            </lane>
            <lane id="e74-84_1"/>
        </edge>
        <edge id="e75-65">
            <lane id="e75-65_0">
                <vehicle id="agent_2" pos="162.54" speed="15.22"/>
            </lane>
            <lane id="e75-65_1"/>
        </edge>
        <edge id="e78-77">
            <lane id="e78-77_0">
                <vehicle id="agent_3" pos="68.36" speed="13.05"/>
            </lane>
            <lane id="e78-77_1"/>
        </edge>
    </timestep>
    <timestep time="88.00">
        <edge id="e74-84">
            <lane id="e74-84_0">
                <vehicle id="agent_1" pos="172.76" speed="10.22"/>
            </lane>
            <lane id="e74-84_1"/>
        </edge>
        <edge id="e75-65">
            <lane id="e75-65_0">
                <vehicle id="agent_2" pos="172.76" speed="10.22"/>
            </lane>
            <lane id="e75-65_1"/>
        </edge>
        <edge id="e78-77">
            <lane id="e78-77_0">
                <vehicle id="agent_3" pos="82.40" speed="14.05"/>
            </lane>
            <lane id="e78-77_1"/>
        </edge>
    </timestep>
    <timestep time="89.00">
        <edge id="e74-84">
            <lane id="e74-84_0">
                <vehicle id="agent_1" pos="177.98" speed="5.22"/>
            </lane>
            <lane id="e74-84_1"/>
        </edge>
        <edge id="e75-65">
            <lane id="e75-65_0">
                <vehicle id="agent_2" pos="177.98" speed="5.22"/>
            </lane>
            <lane id="e75-65_1"/>
        </edge>
        <edge id="e78-77">
            <lane id="e78-77_0">
                <vehicle id="agent_3" pos="97.45" speed="15.05"/>
            </lane>
            <lane id="e78-77_1"/>
        </edge>
    </timestep>
    <timestep time="90.00">
        <edge id="e74-84">
            <lane id="e74-84_0">
                <vehicle id="agent_1" pos="178.20" speed="0.22"/>
            </lane>
            <lane id="e74-84_1"/>
        </edge>
        <edge id="e75-65">
            <lane id="e75-65_0">
                <vehicle id="agent_2" pos="178.20" speed="0.22"/>
            </lane>
            <lane id="e75-65_1"/>
        </edge>
        <edge id="e78-77">
            <lane id="e78-77_0">
                <vehicle id="agent_3" pos="113.50" speed="16.05"/>
            </lane>
            <lane id="e78-77_1"/>
        </edge>
    </timestep>
    <timestep time="91.00">
        <edge id="e74-84">
            <lane id="e74-84_0">
                <vehicle id="agent_1" pos="178.20" speed="0.00"/>
            </lane>
            <lane id="e74-84_1"/>
        </edge>
        <edge id="e75-65">
            <lane id="e75-65_0">
                <vehicle id="agent_2" pos="178.20" speed="0.00"/>
            </lane>
            <lane id="e75-65_1"/>
        </edge>
        <edge id="e78-77">
            <lane id="e78-77_0">
                <vehicle id="agent_3" pos="130.55" speed="17.05"/>
            </lane>
            <lane id="e78-77_1"/>
        </edge>
    </timestep>
    <timestep time="92.00">
        <edge id="e74-84">
            <lane id="e74-84_0">
                <vehicle id="agent_1" pos="178.20" speed="0.00"/>
            </lane>
            <lane id="e74-84_1"/>
        </edge>
        <edge id="e75-65">
            <lane id="e75-65_0">
                <vehicle id="agent_2" pos="178.20" speed="0.00"/>
            </lane>
            <lane id="e75-65_1"/>
        </edge>
        <edge id="e78-77">
            <lane id="e78-77_0">
                <vehicle id="agent_3" pos="148.60" speed="18.05"/>
            </lane>
            <lane id="e78-77_1"/>
        </edge>
    </timestep>
    <timestep time="93.00">
        <edge id="e74-84">
            <lane id="e74-84_0">
                <vehicle id="agent_1" pos="178.20" speed="0.00"/>
            </lane>
            <lane id="e74-84_1"/>
        </edge>
        <edge id="e75-65">
            <lane id="e75-65_0">
                <vehicle id="agent_2" pos="178.20" speed="0.00"/>
            </lane>
            <lane id="e75-65_1"/>
        </edge>
        <edge id="e78-77">
            <lane id="e78-77_0">
                <vehicle id="agent_3" pos="167.64" speed="19.05"/>
            </lane>
            <lane id="e78-77_1"/>
        </edge>
    </timestep>
    <timestep time="94.00">
        <edge id=":n77_1">
            <lane id=":n77_1_0">
                <vehicle id="agent_3" pos="8.49" speed="20.05"/>
            </lane>
            <lane id=":n77_1_1"/>
        </edge>
        <edge id="e74-84">
            <lane id="e74-84_0">
                <vehicle id="agent_1" pos="178.20" speed="0.00"/>
            </lane>
            <lane id="e74-84_1"/>
        </edge>
        <edge id="e75-65">
            <lane id="e75-65_0">
                <vehicle id="agent_2" pos="178.20" speed="0.00"/>
            </lane>
            <lane id="e75-65_1"/>
        </edge>
    </timestep>
    <timestep time="95.00">
        <edge id="e74-84">
            <lane id="e74-84_0">
                <vehicle id="agent_1" pos="178.20" speed="0.00"/>
            </lane>
            <lane id="e74-84_1"/>
        </edge>
        <edge id="e75-65">
            <lane id="e75-65_0">
                <vehicle id="agent_2" pos="178.20" speed="0.00"/>